write by das.strcture.Structure. 
0.000000000000000 28.597776222651543 xlo xhi
0.000000000000000 28.597776222651543 ylo yhi
0.000000000000000 28.597776222651543 zlo zhi
0.000000000000002 0.000000000000002 -0.000000000000000 xy xz yz

1475 atoms
2 atom types

Masses

1   63.545999999999999
2   78.971000000000004

Atoms # atomic

         1    1    4.289666433397732    4.289666433397732    1.429888811132577
         2    1    4.289666433397733   10.009221677928039    7.149444055662886
         3    1   27.167887411518976    4.289666433397732    7.149444055662886
         4    1   21.448332166988656    4.289666433397732    7.149444055662886
         5    1   24.308109789253812   24.308109789253812   27.167887411518976
         6    1   10.009221677928039    4.289666433397732    1.429888811132577
         7    1   15.728776922458350    4.289666433397732    1.429888811132577
         8    1   21.448332166988656    4.289666433397732    1.429888811132577
         9    1   27.167887411518976    4.289666433397732    1.429888811132577
        10    1    4.289666433397733   10.009221677928039    1.429888811132577
        11    1   10.009221677928039   10.009221677928039    1.429888811132577
        12    1   15.728776922458350   10.009221677928039    1.429888811132577
        13    1   21.448332166988656   10.009221677928039    1.429888811132577
        14    1   10.009221677928039   10.009221677928039    7.149444055662886
        15    1   27.167887411518976   10.009221677928039    1.429888811132577
        16    1   10.009221677928041   15.728776922458350    1.429888811132577
        17    1   15.728776922458351   15.728776922458350    1.429888811132577
        18    1   27.167887411518976   10.009221677928039   12.868999300193197
        19    1   21.448332166988656   15.728776922458350    1.429888811132577
        20    1   10.009221677928041   21.448332166988656    1.429888811132577
        21    1   15.728776922458351   21.448332166988656    1.429888811132577
        22    1   21.448332166988656   21.448332166988656    1.429888811132577
        23    1   27.167887411518976   21.448332166988656    1.429888811132577
        24    1    4.289666433397734   27.167887411518976    1.429888811132577
        25    1   10.009221677928041   27.167887411518976    1.429888811132577
        26    1   15.728776922458351   27.167887411518976    1.429888811132577
        27    1   21.448332166988656   27.167887411518976    1.429888811132577
        28    1    4.289666433397733   15.728776922458350    1.429888811132577
        29    1   21.448332166988656   10.009221677928039   12.868999300193197
        30    1   15.728776922458350   10.009221677928039   12.868999300193197
        31    1   10.009221677928039   10.009221677928039   12.868999300193197
        32    1   27.167887411518976   27.167887411518976   24.308109789253812
        33    1   21.448332166988656   27.167887411518976   24.308109789253812
        34    1   15.728776922458353   27.167887411518976   24.308109789253812
        35    1   15.728776922458350   10.009221677928039    7.149444055662886
        36    1   21.448332166988656   10.009221677928039    7.149444055662886
        37    1   27.167887411518976   10.009221677928039    7.149444055662886
        38    1    4.289666433397733   15.728776922458350    7.149444055662886
        39    1   10.009221677928041   15.728776922458350    7.149444055662886
        40    1   15.728776922458351   15.728776922458350    7.149444055662886
        41    1   21.448332166988656   15.728776922458350    7.149444055662886
        42    1   27.167887411518976   15.728776922458350    7.149444055662886
        43    1    4.289666433397733   21.448332166988656    7.149444055662886
        44    1   10.009221677928041   21.448332166988656    7.149444055662886
        45    1   15.728776922458351   21.448332166988656    7.149444055662886
        46    1   21.448332166988656   21.448332166988656    7.149444055662886
        47    1   27.167887411518976   21.448332166988656    7.149444055662886
        48    1    4.289666433397734   27.167887411518976    7.149444055662886
        49    1   10.009221677928041   27.167887411518976    7.149444055662886
        50    1   15.728776922458351   27.167887411518976    7.149444055662886
        51    1   21.448332166988656   27.167887411518976    7.149444055662886
        52    1   27.167887411518976   27.167887411518976    7.149444055662886
        53    1    4.289666433397733    4.289666433397732   12.868999300193197
        54    1   10.009221677928039    4.289666433397732   12.868999300193197
        55    1   15.728776922458350    4.289666433397732   12.868999300193197
        56    1   21.448332166988656    4.289666433397732   12.868999300193197
        57    1   27.167887411518976    4.289666433397732   12.868999300193197
        58    1    4.289666433397734   10.009221677928039   12.868999300193197
        59    1   27.167887411518976   27.167887411518976    1.429888811132577
        60    1   18.588554544723515    4.289666433397732   18.588554544723515
        61    1    4.289666433397732    4.289666433397732    7.149444055662886
        62    1   15.728776922458350    4.289666433397732    7.149444055662886
        63    1   27.167887411518976   21.448332166988656   18.588554544723515
        64    1   21.448332166988656   21.448332166988656   18.588554544723515
        65    1   15.728776922458353   21.448332166988656   18.588554544723515
        66    1   10.009221677928043   21.448332166988656   18.588554544723515
        67    1   21.448332166988656   15.728776922458350   12.868999300193197
        68    1   27.167887411518976   15.728776922458350   12.868999300193197
        69    1    4.289666433397734   21.448332166988656   12.868999300193197
        70    1   10.009221677928041   21.448332166988656   12.868999300193197
        71    1   15.728776922458351   21.448332166988656   12.868999300193197
        72    1   21.448332166988656   21.448332166988656   12.868999300193197
        73    1   27.167887411518976   21.448332166988656   12.868999300193197
        74    1    4.289666433397735   27.167887411518976   12.868999300193197
        75    1   10.009221677928043   27.167887411518976   24.308109789253812
        76    1   10.009221677928041   27.167887411518976   12.868999300193197
        77    1   21.448332166988656   27.167887411518976   12.868999300193197
        78    1   27.167887411518976   27.167887411518976   12.868999300193197
        79    1    4.289666433397733    4.289666433397732   18.588554544723515
        80    1   10.009221677928041   15.728776922458350   12.868999300193197
        81    1   10.009221677928041    4.289666433397732   18.588554544723515
        82    1   21.448332166988656    4.289666433397732   18.588554544723515
        83    1   27.167887411518976    4.289666433397732   18.588554544723515
        84    1    4.289666433397734   10.009221677928039   18.588554544723515
        85    1   10.009221677928041   10.009221677928039   18.588554544723515
        86    1   15.728776922458351   10.009221677928039   18.588554544723515
        87    1   21.448332166988656   10.009221677928039   18.588554544723515
        88    1    4.289666433397734   15.728776922458350   18.588554544723515
        89    1   15.728776922458351   27.167887411518976   12.868999300193197
        90    1    4.289666433397736   27.167887411518976   24.308109789253812
        91    1   27.167887411518976   21.448332166988656   24.308109789253812
        92    1   21.448332166988656   21.448332166988656   24.308109789253812
        93    1   27.167887411518976   15.728776922458350    1.429888811132577
        94    1   18.588554544723515   27.167887411518976   24.308109789253812
        95    1    4.289666433397734   15.728776922458350   12.868999300193197
        96    1   15.728776922458351   15.728776922458350   12.868999300193197
        97    1    4.289666433397735   27.167887411518976   18.588554544723515
        98    1   10.009221677928043   27.167887411518976   18.588554544723515
        99    1   15.728776922458353   27.167887411518976   18.588554544723515
       100    1   21.448332166988656   27.167887411518976   18.588554544723515
       101    1   27.167887411518976   27.167887411518976   18.588554544723515
       102    1    4.289666433397734    4.289666433397732   24.308109789253812
       103    1   10.009221677928041    4.289666433397732   24.308109789253812
       104    1   15.728776922458351    4.289666433397732   24.308109789253812
       105    1   21.448332166988656    4.289666433397732   24.308109789253812
       106    1   27.167887411518976    4.289666433397732   24.308109789253812
       107    1    4.289666433397735   10.009221677928039   24.308109789253812
       108    1   10.009221677928041   10.009221677928039   24.308109789253812
       109    1   15.728776922458351   10.009221677928039   24.308109789253812
       110    1   21.448332166988656   10.009221677928039   24.308109789253812
       111    1   27.167887411518976   10.009221677928039   24.308109789253812
       112    1    4.289666433397735   15.728776922458350   24.308109789253812
       113    1   10.009221677928043   15.728776922458350   24.308109789253812
       114    1   15.728776922458353   15.728776922458350   24.308109789253812
       115    1   21.448332166988656   15.728776922458350   24.308109789253812
       116    1   27.167887411518976   15.728776922458350   24.308109789253812
       117    1    4.289666433397735   21.448332166988656   24.308109789253812
       118    1   10.009221677928043   21.448332166988656   24.308109789253812
       119    1   15.728776922458353   21.448332166988656   24.308109789253812
       120    1   10.009221677928039    4.289666433397732    7.149444055662886
       121    1   10.009221677928043   15.728776922458350   18.588554544723515
       122    1    7.149444055662888   21.448332166988656   18.588554544723515
       123    1   24.308109789253812   15.728776922458350   18.588554544723515
       124    1    1.429888811132579   15.728776922458350   12.868999300193197
       125    1    7.149444055662887   10.009221677928039    7.149444055662886
       126    1   12.868999300193197    4.289666433397732    1.429888811132577
       127    1   18.588554544723515    4.289666433397732    1.429888811132577
       128    1   24.308109789253812    4.289666433397732    1.429888811132577
       129    1    1.429888811132578   10.009221677928039    1.429888811132577
       130    1    7.149444055662887   10.009221677928039    1.429888811132577
       131    1   12.868999300193197   10.009221677928039    1.429888811132577
       132    1   18.588554544723515   10.009221677928039    1.429888811132577
       133    1   24.308109789253812   10.009221677928039    1.429888811132577
       134    1    1.429888811132578   15.728776922458350    1.429888811132577
       135    1    7.149444055662887   15.728776922458350    1.429888811132577
       136    1   12.868999300193197   10.009221677928039    7.149444055662886
       137    1   12.868999300193199   15.728776922458350    1.429888811132577
       138    1   24.308109789253812   15.728776922458350    1.429888811132577
       139    1    1.429888811132578   21.448332166988656    1.429888811132577
       140    1    7.149444055662887   21.448332166988656    1.429888811132577
       141    1   12.868999300193199   21.448332166988656    1.429888811132577
       142    1   18.588554544723515   21.448332166988656    1.429888811132577
       143    1   24.308109789253812   21.448332166988656    1.429888811132577
       144    1    1.429888811132579   27.167887411518976    1.429888811132577
       145    1    7.149444055662888   27.167887411518976    1.429888811132577
       146    1   12.868999300193199   27.167887411518976    1.429888811132577
       147    1   18.588554544723515   27.167887411518976    1.429888811132577
       148    1   24.308109789253812   27.167887411518976    1.429888811132577
       149    1    1.429888811132578    4.289666433397732    7.149444055662886
       150    1   18.588554544723515   15.728776922458350    1.429888811132577
       151    1   24.308109789253812   10.009221677928039   12.868999300193197
       152    1   18.588554544723515   10.009221677928039   12.868999300193197
       153    1   12.868999300193197   10.009221677928039   12.868999300193197
       154    1    1.429888811132579    7.149444055662886   18.588554544723515
       155    1    1.429888811132578    4.289666433397732    4.289666433397732
       156    1   27.167887411518976   27.167887411518976   27.167887411518976
       157    1   18.588554544723515   24.308109789253812   27.167887411518976
       158    1   18.588554544723515   10.009221677928039    7.149444055662886
       159    1   24.308109789253812   10.009221677928039    7.149444055662886
       160    1    1.429888811132578   15.728776922458350    7.149444055662886
       161    1    7.149444055662887   15.728776922458350    7.149444055662886
       162    1   12.868999300193199   15.728776922458350    7.149444055662886
       163    1   24.308109789253812   15.728776922458350    7.149444055662886
       164    1    1.429888811132579   21.448332166988656    7.149444055662886
       165    1    7.149444055662887   21.448332166988656    7.149444055662886
       166    1   12.868999300193199   21.448332166988656    7.149444055662886
       167    1   18.588554544723515   21.448332166988656    7.149444055662886
       168    1   24.308109789253812   21.448332166988656    7.149444055662886
       169    1    1.429888811132579   27.167887411518976    7.149444055662886
       170    1    7.149444055662888   27.167887411518976    7.149444055662886
       171    1   12.868999300193199   27.167887411518976    7.149444055662886
       172    1   18.588554544723515   27.167887411518976    7.149444055662886
       173    1   24.308109789253812   27.167887411518976    7.149444055662886
       174    1    1.429888811132578    4.289666433397732   12.868999300193197
       175    1    7.149444055662887    4.289666433397732   12.868999300193197
       176    1   12.868999300193197    4.289666433397732   12.868999300193197
       177    1   18.588554544723515    4.289666433397732   12.868999300193197
       178    1   24.308109789253812    4.289666433397732   12.868999300193197
       179    1    1.429888811132579   10.009221677928039   12.868999300193197
       180    1    7.149444055662888   10.009221677928039   12.868999300193197
       181    1    7.149444055662886    4.289666433397732    7.149444055662886
       182    1    1.429888811132580   21.448332166988656   18.588554544723515
       183    1   12.868999300193197    4.289666433397732    7.149444055662886
       184    1    1.429888811132578   10.009221677928039    7.149444055662886
       185    1   24.308109789253812   21.448332166988656   18.588554544723515
       186    1   18.588554544723515   21.448332166988656   18.588554544723515
       187    1   12.868999300193201   21.448332166988656   18.588554544723515
       188    1   24.308109789253812   15.728776922458350   12.868999300193197
       189    1    1.429888811132579   21.448332166988656   12.868999300193197
       190    1    7.149444055662888   21.448332166988656   12.868999300193197
       191    1   12.868999300193199   21.448332166988656   12.868999300193197
       192    1   18.588554544723515   21.448332166988656   12.868999300193197
       193    1    1.429888811132580   27.167887411518976   12.868999300193197
       194    1    7.149444055662888   27.167887411518976   12.868999300193197
       195    1   12.868999300193199   27.167887411518976   12.868999300193197
       196    1   18.588554544723515   27.167887411518976   12.868999300193197
       197    1    1.429888811132580   27.167887411518976   18.588554544723515
       198    1   24.308109789253812   27.167887411518976   12.868999300193197
       199    1    7.149444055662887    4.289666433397732   18.588554544723515
       200    1    1.429888811132577    4.289666433397732    1.429888811132577
       201    1   12.868999300193199    4.289666433397732   18.588554544723515
       202    1   24.308109789253812    4.289666433397732   18.588554544723515
       203    1    1.429888811132579   10.009221677928039   18.588554544723515
       204    1   12.868999300193199   10.009221677928039   18.588554544723515
       205    1   18.588554544723515   10.009221677928039   18.588554544723515
       206    1   24.308109789253812   10.009221677928039   18.588554544723515
       207    1    1.429888811132579   15.728776922458350   18.588554544723515
       208    1    7.149444055662888   15.728776922458350   18.588554544723515
       209    1   12.868999300193201   15.728776922458350   18.588554544723515
       210    1   18.588554544723515   15.728776922458350   18.588554544723515
       211    1    1.429888811132578    4.289666433397732   18.588554544723515
       212    1   12.868999300193201   27.167887411518976   24.308109789253812
       213    1    7.149444055662889   27.167887411518976   24.308109789253812
       214    1    1.429888811132580   27.167887411518976   24.308109789253812
       215    1    7.149444055662888   15.728776922458350   12.868999300193197
       216    1   12.868999300193199   15.728776922458350   12.868999300193197
       217    1   18.588554544723515   15.728776922458350   12.868999300193197
       218    1    7.149444055662888   27.167887411518976   18.588554544723515
       219    1   12.868999300193201   27.167887411518976   18.588554544723515
       220    1   18.588554544723515   27.167887411518976   18.588554544723515
       221    1   24.308109789253812   27.167887411518976   18.588554544723515
       222    1    1.429888811132579    4.289666433397732   24.308109789253812
       223    1    7.149444055662888    4.289666433397732   24.308109789253812
       224    1   12.868999300193199    4.289666433397732   24.308109789253812
       225    1   18.588554544723515    4.289666433397732   24.308109789253812
       226    1   24.308109789253812    4.289666433397732   24.308109789253812
       227    1    1.429888811132579   10.009221677928039   24.308109789253812
       228    1    7.149444055662888   10.009221677928039   24.308109789253812
       229    1   12.868999300193199   10.009221677928039   24.308109789253812
       230    1   18.588554544723515   10.009221677928039   24.308109789253812
       231    1   24.308109789253812   10.009221677928039   24.308109789253812
       232    1    1.429888811132580   15.728776922458350   24.308109789253812
       233    1    7.149444055662888   15.728776922458350   24.308109789253812
       234    1   12.868999300193201   15.728776922458350   24.308109789253812
       235    1   18.588554544723515   15.728776922458350   24.308109789253812
       236    1   24.308109789253812   15.728776922458350   24.308109789253812
       237    1    1.429888811132580   21.448332166988656   24.308109789253812
       238    1    7.149444055662888   21.448332166988656   24.308109789253812
       239    1   12.868999300193201   21.448332166988656   24.308109789253812
       240    1   18.588554544723515   21.448332166988656   24.308109789253812
       241    1   24.308109789253812   21.448332166988656   24.308109789253812
       242    1   18.588554544723515    4.289666433397732    7.149444055662886
       243    1   18.588554544723515   18.588554544723515   18.588554544723515
       244    1   15.728776922458353   15.728776922458350   18.588554544723515
       245    1   27.167887411518976   15.728776922458350   18.588554544723515
       246    1   21.448332166988656   24.308109789253812   27.167887411518976
       247    1   21.448332166988656    1.429888811132577    4.289666433397732
       248    1   27.167887411518976    1.429888811132577    4.289666433397732
       249    1    4.289666433397732    7.149444055662886    4.289666433397732
       250    1   10.009221677928039    7.149444055662886    4.289666433397732
       251    1   15.728776922458350    7.149444055662886    4.289666433397732
       252    1   21.448332166988656    7.149444055662886    4.289666433397732
       253    1   27.167887411518976    7.149444055662886    4.289666433397732
       254    1    4.289666433397733   12.868999300193197    4.289666433397732
       255    1   10.009221677928039   12.868999300193197    4.289666433397732
       256    1   15.728776922458350   12.868999300193197    4.289666433397732
       257    1   21.448332166988656   12.868999300193197    4.289666433397732
       258    1   10.009221677928039    1.429888811132577    4.289666433397732
       259    1    4.289666433397734   12.868999300193197   15.728776922458350
       260    1   10.009221677928041   18.588554544723515    4.289666433397732
       261    1   15.728776922458351   18.588554544723515    4.289666433397732
       262    1   21.448332166988656   18.588554544723515    4.289666433397732
       263    1   27.167887411518976   18.588554544723515    4.289666433397732
       264    1    4.289666433397734   24.308109789253812    4.289666433397732
       265    1   10.009221677928041   24.308109789253812    4.289666433397732
       266    1   15.728776922458351   24.308109789253812    4.289666433397732
       267    1   27.167887411518976   24.308109789253812    4.289666433397732
       268    1    4.289666433397733    1.429888811132577   10.009221677928039
       269    1   10.009221677928039    1.429888811132577   10.009221677928039
       270    1   15.728776922458350    1.429888811132577   10.009221677928039
       271    1   21.448332166988656    1.429888811132577   10.009221677928039
       272    1   27.167887411518976   12.868999300193197    4.289666433397732
       273    1   27.167887411518976    1.429888811132577   10.009221677928039
       274    1    4.289666433397733    7.149444055662886   10.009221677928039
       275    1   10.009221677928039    7.149444055662886   10.009221677928039
       276    1   27.167887411518976   24.308109789253812   27.167887411518976
       277    1   24.308109789253812    7.149444055662886   15.728776922458350
       278    1   15.728776922458353   24.308109789253812   27.167887411518976
       279    1   21.448332166988656    7.149444055662886   10.009221677928039
       280    1   27.167887411518976    7.149444055662886   10.009221677928039
       281    1    4.289666433397734   12.868999300193197   10.009221677928039
       282    1   15.728776922458350   12.868999300193197   10.009221677928039
       283    1   21.448332166988656   12.868999300193197   10.009221677928039
       284    1   27.167887411518976   12.868999300193197   10.009221677928039
       285    1    4.289666433397734   18.588554544723515   10.009221677928039
       286    1   10.009221677928041   18.588554544723515   10.009221677928039
       287    1   15.728776922458351   18.588554544723515   10.009221677928039
       288    1   21.448332166988656   18.588554544723515   10.009221677928039
       289    1   27.167887411518976   18.588554544723515   10.009221677928039
       290    1   10.009221677928041   24.308109789253812   10.009221677928039
       291    1   15.728776922458351   24.308109789253812   10.009221677928039
       292    1   21.448332166988656   24.308109789253812   10.009221677928039
       293    1   27.167887411518976   24.308109789253812   10.009221677928039
       294    1    4.289666433397733    1.429888811132577   15.728776922458350
       295    1   15.728776922458351    1.429888811132577   15.728776922458350
       296    1   21.448332166988656    1.429888811132577   15.728776922458350
       297    1    4.289666433397733    7.149444055662886   15.728776922458350
       298    1   10.009221677928041    7.149444055662886   15.728776922458350
       299    1   15.728776922458351    7.149444055662886   15.728776922458350
       300    1   21.448332166988656    7.149444055662886   15.728776922458350
       301    1   27.167887411518976    7.149444055662886   15.728776922458350
       302    1   15.728776922458350    7.149444055662886   10.009221677928039
       303    1    4.289666433397733   18.588554544723515    4.289666433397732
       304    1   18.588554544723515    1.429888811132577   21.448332166988656
       305    1   10.009221677928041   12.868999300193197   15.728776922458350
       306    1   21.448332166988656   12.868999300193197   15.728776922458350
       307    1    4.289666433397734   18.588554544723515   15.728776922458350
       308    1   10.009221677928043   18.588554544723515   15.728776922458350
       309    1   15.728776922458353   18.588554544723515   15.728776922458350
       310    1   21.448332166988656   18.588554544723515   15.728776922458350
       311    1   27.167887411518976   18.588554544723515   15.728776922458350
       312    1    4.289666433397735   24.308109789253812   15.728776922458350
       313    1   15.728776922458353   24.308109789253812   15.728776922458350
       314    1   21.448332166988656   24.308109789253812   15.728776922458350
       315    1   27.167887411518976   24.308109789253812   15.728776922458350
       316    1    4.289666433397733    1.429888811132577   21.448332166988656
       317    1   10.009221677928041    1.429888811132577   21.448332166988656
       318    1   10.009221677928043   24.308109789253812   15.728776922458350
       319    1   27.167887411518976   12.868999300193197   15.728776922458350
       320    1   21.448332166988656    1.429888811132577   21.448332166988656
       321    1   27.167887411518976   12.868999300193197   21.448332166988656
       322    1   21.448332166988656   12.868999300193197   21.448332166988656
       323    1   15.728776922458351   12.868999300193197   21.448332166988656
       324    1    4.289666433397734   12.868999300193197   21.448332166988656
       325    1   27.167887411518976    7.149444055662886   21.448332166988656
       326    1   10.009221677928041   12.868999300193197   21.448332166988656
       327    1    4.289666433397734   18.588554544723515   21.448332166988656
       328    1   15.728776922458351    7.149444055662886   21.448332166988656
       329    1   10.009221677928041    7.149444055662886   21.448332166988656
       330    1    4.289666433397733    7.149444055662886   21.448332166988656
       331    1   27.167887411518976    1.429888811132577   21.448332166988656
       332    1   21.448332166988656    7.149444055662886   21.448332166988656
       333    1   15.728776922458351    1.429888811132577   21.448332166988656
       334    1   15.728776922458353   18.588554544723515   21.448332166988656
       335    1   10.009221677928043   18.588554544723515   21.448332166988656
       336    1   10.009221677928043   24.308109789253812   27.167887411518976
       337    1    4.289666433397735   24.308109789253812   21.448332166988656
       338    1   10.009221677928043   24.308109789253812   21.448332166988656
       339    1   15.728776922458353   24.308109789253812   21.448332166988656
       340    1   21.448332166988656   24.308109789253812   21.448332166988656
       341    1   27.167887411518976   24.308109789253812   21.448332166988656
       342    1    4.289666433397734    1.429888811132577   27.167887411518976
       343    1   10.009221677928041    1.429888811132577   27.167887411518976
       344    1   15.728776922458351    1.429888811132577   27.167887411518976
       345    1   21.448332166988656    1.429888811132577   27.167887411518976
       346    1   27.167887411518976    1.429888811132577   27.167887411518976
       347    1    4.289666433397734    7.149444055662886   27.167887411518976
       348    1   10.009221677928041    7.149444055662886   27.167887411518976
       349    1   15.728776922458351    7.149444055662886   27.167887411518976
       350    1   27.167887411518976    7.149444055662886   27.167887411518976
       351    1    4.289666433397735   12.868999300193197   27.167887411518976
       352    1   10.009221677928041   12.868999300193197   27.167887411518976
       353    1   15.728776922458351   12.868999300193197   27.167887411518976
       354    1   21.448332166988656   12.868999300193197   27.167887411518976
       355    1   27.167887411518976   12.868999300193197   27.167887411518976
       356    1    4.289666433397735   18.588554544723515   27.167887411518976
       357    1   10.009221677928043   18.588554544723515   27.167887411518976
       358    1   15.728776922458353   18.588554544723515   27.167887411518976
       359    1   21.448332166988656   18.588554544723515   27.167887411518976
       360    1   27.167887411518976   18.588554544723515   27.167887411518976
       361    1    4.289666433397736   24.308109789253812   27.167887411518976
       362    1   15.728776922458351   12.868999300193197   15.728776922458350
       363    1   27.167887411518976   18.588554544723515   21.448332166988656
       364    1   15.728776922458350    1.429888811132577    4.289666433397732
       365    1   21.448332166988656   15.728776922458350   18.588554544723515
       366    1    7.149444055662888   18.588554544723515   21.448332166988656
       367    1   24.308109789253812   12.868999300193197   21.448332166988656
       368    1    1.429888811132579   12.868999300193197   15.728776922458350
       369    1    1.429888811132578    7.149444055662886   10.009221677928039
       370    1   18.588554544723515    1.429888811132577   10.009221677928039
       371    1    7.149444055662886    1.429888811132577    4.289666433397732
       372    1   12.868999300193197    1.429888811132577    4.289666433397732
       373    1   18.588554544723515    1.429888811132577    4.289666433397732
       374    1   24.308109789253812    1.429888811132577    4.289666433397732
       375    1    1.429888811132578    7.149444055662886    4.289666433397732